15
nuc24_conf-38.log	Energy: -443071.6961974
S          2.01254       -1.06050       -0.12990
C          1.58300        0.67795        0.28138
C          0.12062        0.99291        0.03115
O         -0.65549       -0.09164        0.14274
C         -2.06680        0.09072       -0.06737
C         -2.72958       -1.26413        0.04753
O         -0.29189        2.09962       -0.20914
H          3.34954       -0.87523       -0.03003
H          1.78445        0.88095        1.34649
H          2.17174        1.38690       -0.31483
H         -2.44558        0.80553        0.68097
H         -2.22034        0.54837       -1.05759
H         -3.81510       -1.16610       -0.10710
H         -2.33158       -1.95926       -0.70719
H         -2.55818       -1.70165        1.04278
