8
nuc25_conf-2.log	Energy: -344076.7135010
S         -1.30918        0.02781        0.04303
C          0.50319        0.12368       -0.00595
N          1.12882       -1.10432       -0.05193
N          1.15178        1.21594       -0.00369
H         -1.41851       -1.10383       -0.69135
H          2.13939       -1.03982        0.04259
H          0.70337       -1.85119        0.48599
H          0.53917        2.02644       -0.10062
