13
nuc04_conf-0.log	Energy: -684124.1280741
S         -3.17072       -0.08229        0.00001
C         -1.39544        0.00148        0.00001
C         -0.68327        1.21046        0.00000
C          0.71197        1.21253       -0.00000
C          1.40652        0.00118       -0.00001
Cl         3.15391        0.00144       -0.00001
C          0.71179       -1.21128       -0.00000
C         -0.68204       -1.20846        0.00000
H         -3.39172        1.25062        0.00002
H         -1.21664        2.16372        0.00001
H          1.26290        2.15416       -0.00000
H          1.26342       -2.15244       -0.00001
H         -1.22004       -2.15937        0.00000
