20
nuc13_conf-9.log	Energy: -526295.5122823
S          0.03324        2.31267        0.17705
C          0.87209        0.72717        0.04838
C          0.24313       -0.53808        0.05590
C         -1.24066       -0.83186        0.16107
N         -2.08857        0.08526       -0.38274
C         -3.52153       -0.10631       -0.41301
O         -1.62908       -1.87628        0.66422
C          1.05346       -1.68313       -0.02485
C          2.43474       -1.59632       -0.17560
C          3.04375       -0.34018       -0.21792
C          2.26700        0.80980       -0.08675
H         -0.86094        1.96417        1.13041
H         -1.69250        0.91230       -0.81762
H         -4.04739        0.77177       -0.00280
H         -3.88824       -0.28230       -1.43917
H         -3.75823       -0.98707        0.19714
H          0.55211       -2.65051        0.02988
H          3.03463       -2.50566       -0.25309
H          4.12706       -0.25125       -0.32824
H          2.74233        1.79273       -0.06720
