21
nuc31_conf-31.log	Energy: -398738.2449634
S         -3.16473       -0.41024       -0.21750
C         -1.71741        0.39338        0.57486
C         -0.42042        0.28945       -0.22159
C          0.74360        1.02116        0.45219
C          2.04743        1.01070       -0.35633
C          2.61830       -0.37751       -0.67690
C          2.92014       -1.23309        0.55375
H         -2.68046       -1.67354       -0.17420
H         -2.02050        1.44695        0.68674
H         -1.59074       -0.00848        1.59272
H         -0.17036       -0.77704       -0.35558
H         -0.58610        0.69254       -1.23544
H          0.45068        2.07050        0.63313
H          0.91792        0.58562        1.45208
H          1.88322        1.55415       -1.30379
H          2.80804        1.58923        0.19789
H          1.92525       -0.92176       -1.34200
H          3.54410       -0.24391       -1.26251
H          3.59923       -0.70890        1.24733
H          2.00557       -1.48241        1.11556
H          3.40000       -2.18368        0.27219
