21
nuc31_conf-75.log	Energy: -398736.6058491
S         -3.14772        0.40618       -0.16218
C         -1.70023       -0.50680        0.50083
C         -0.40458       -0.28450       -0.27289
C          0.75338       -1.13542        0.26182
C          2.09599       -0.93079       -0.46316
C          3.01138        0.15593        0.11795
C          2.45246        1.57930        0.10758
H         -2.65761        1.64860        0.05793
H         -1.57298       -0.26092        1.56714
H         -2.00312       -1.56550        0.45487
H         -0.57726       -0.51923       -1.33683
H         -0.14499        0.78553       -0.23803
H          0.88758       -0.94538        1.34303
H          0.45810       -2.19631        0.18334
H          2.65639       -1.88048       -0.44534
H          1.90328       -0.71904       -1.53102
H          3.27485       -0.12102        1.15508
H          3.96122        0.14148       -0.44473
H          2.13916        1.88150       -0.90574
H          1.57931        1.68350        0.77058
H          3.20920        2.30213        0.45188
