21
nuc31_conf-18.log	Energy: -398737.8394562
S         -2.36065        0.85312       -0.21405
C         -1.90730       -0.85248        0.30852
C         -0.41629       -1.06095        0.56983
C          0.45675       -0.92220       -0.67827
C          1.96474       -0.93173       -0.40272
C          2.47201        0.20912        0.49209
C          2.11058        1.60808       -0.00954
H         -2.02641        1.45830        0.94970
H         -2.50861       -1.11985        1.19005
H         -2.25280       -1.48925       -0.52199
H         -0.09457       -0.34496        1.34513
H         -0.27689       -2.06558        1.01033
H          0.21183       -1.74299       -1.37555
H          0.17993        0.00782       -1.20031
H          2.25061       -1.89717        0.05245
H          2.49459       -0.88441       -1.37079
H          2.08771        0.07899        1.51914
H          3.56891        0.12172        0.57739
H          2.46232        1.76376       -1.04352
H          1.02180        1.77686       -0.00593
H          2.56911        2.38785        0.61913
