21
nuc31_conf-65.log	Energy: -398737.8277851
S          2.31646       -1.00593       -0.32803
C          1.84111        0.34680        0.83213
C          1.07909        1.44731        0.09285
C         -0.19204        0.99469       -0.63619
C         -1.21358        0.27881        0.24767
C         -2.51532       -0.05742       -0.48204
C         -3.52801       -0.79229        0.39443
H          2.97255       -1.75936        0.58345
H          1.22470       -0.07653        1.63919
H          2.75274        0.76433        1.28426
H          0.81747        2.21985        0.83827
H          1.75840        1.93126       -0.62930
H         -0.66288        1.88233       -1.09407
H          0.08035        0.33183       -1.47615
H         -0.77268       -0.65674        0.63420
H         -1.44059        0.90316        1.13261
H         -2.96626        0.87396       -0.86999
H         -2.28019       -0.67031       -1.37074
H         -3.11522       -1.74491        0.76635
H         -3.80611       -0.18878        1.27477
H         -4.45307       -1.02247       -0.15753
