21
nuc31_conf-172.log	Energy: -398733.3870870
S          1.78938       -1.05958       -0.29554
C          1.84313        0.70111        0.26226
C          0.50750        1.18636        0.83429
C         -0.58358        1.55151       -0.18569
C         -1.23655        0.42531       -1.00560
C         -2.34166       -0.38022       -0.30739
C         -1.91621       -1.22319        0.89721
H          3.12726       -1.20984       -0.43422
H          2.61644        0.77069        1.04079
H          2.15244        1.33975       -0.58087
H          0.14283        0.45290        1.56900
H          0.73423        2.10008        1.41120
H         -1.37982        2.10234        0.34729
H         -0.14178        2.28083       -0.88826
H         -1.68653        0.88906       -1.90034
H         -0.46250       -0.26001       -1.38895
H         -3.14852        0.31102       -0.00085
H         -2.79405       -1.04818       -1.06123
H         -1.04448       -1.85460        0.66093
H         -1.64604       -0.60031        1.76374
H         -2.73530       -1.88576        1.22006
