21
nuc31_conf-41.log	Energy: -398737.8916869
S         -2.99017       -0.46852        0.03049
C         -1.41290        0.39626        0.39782
C         -0.42487        0.41756       -0.76566
C          0.83301        1.25457       -0.49569
C          1.68016        0.81038        0.70634
C          2.13853       -0.65370        0.68360
C          2.98282       -1.02974       -0.53444
H         -2.44873       -1.69406       -0.16238
H         -1.71968        1.42121        0.66304
H         -0.96946       -0.04565        1.30222
H         -0.14270       -0.62024       -1.01509
H         -0.94135        0.80953       -1.65682
H          1.45476        1.24748       -1.40690
H          0.53723        2.30824       -0.34694
H          2.57012        1.46223        0.76251
H          1.12098        0.99276        1.64021
H          2.71793       -0.85068        1.60197
H          1.26041       -1.32121        0.74135
H          3.34673       -2.06696       -0.46423
H          2.41201       -0.94578       -1.47296
H          3.86405       -0.37249       -0.62553
