21
nuc31_conf-121.log	Energy: -398736.9042091
S          1.92967       -1.12024       -0.16908
C          1.54672        0.45058        0.70527
C          0.92228        1.54722       -0.15798
C         -0.44709        1.24927       -0.78134
C         -1.60430        1.02695        0.20981
C         -1.80556       -0.40680        0.72677
C         -2.24945       -1.39947       -0.34877
H          0.65780       -1.54509       -0.33114
H          0.93521        0.22888        1.59205
H          2.52704        0.78453        1.07837
H          0.83685        2.45353        0.47063
H          1.63041        1.79407       -0.96664
H         -0.69973        2.10635       -1.42709
H         -0.35556        0.38905       -1.46571
H         -1.47286        1.70812        1.06972
H         -2.54708        1.33996       -0.27269
H         -0.88643       -0.77710        1.21012
H         -2.56773       -0.38366        1.52458
H         -2.40924       -2.40375        0.07429
H         -3.19444       -1.07938       -0.81846
H         -1.50444       -1.49828       -1.15527
