21
nuc31_conf-1.log	Energy: -398738.7368223
S          2.93424       -0.82804        0.07718
C          2.22914        0.82872       -0.29826
C          0.81826        1.07200        0.23575
C         -0.25043        0.14788       -0.34585
C         -1.64634        0.39677        0.22432
C         -2.71900       -0.52514       -0.35818
C         -4.11111       -0.27798        0.22048
H          2.96448       -0.67605        1.42213
H          2.92651        1.59836        0.06494
H          2.24043        0.87950       -1.39912
H          0.82738        0.98194        1.33732
H          0.55249        2.12394        0.02170
H         -0.27468        0.26968       -1.44478
H          0.04475       -0.89931       -0.16427
H         -1.61866        0.27359        1.32310
H         -1.93641        1.44972        0.04922
H         -2.74582       -0.40027       -1.45583
H         -2.42462       -1.57571       -0.18384
H         -4.12185       -0.43056        1.31271
H         -4.44445        0.75604        0.03040
H         -4.86050       -0.95576       -0.21811
