21
nuc31_conf-112.log	Energy: -398736.3596050
S          2.77702       -0.15808       -0.65117
C          1.81400       -0.34813        0.90470
C          0.29536       -0.34953        0.73447
C         -0.27597        0.98130        0.24254
C         -1.80532        1.10601        0.24750
C         -2.57063        0.16296       -0.69800
C         -2.89345       -1.22128       -0.12958
H          2.51288        1.15233       -0.85367
H          2.15483       -1.31347        1.30886
H          2.13523        0.42851        1.61698
H          0.02247       -1.16055        0.04109
H         -0.15578       -0.60228        1.71202
H          0.13915        1.79220        0.86961
H          0.09243        1.16854       -0.78123
H         -2.18436        0.97496        1.27822
H         -2.04748        2.14655       -0.02743
H         -3.52242        0.64714       -0.97632
H         -2.00483        0.05871       -1.64177
H         -3.47791       -1.13633        0.80186
H         -3.49083       -1.81238       -0.84220
H         -1.98951       -1.80255        0.10297
