21
nuc31_conf-85.log	Energy: -398737.1997617
S          2.13545       -1.08787       -0.29317
C          1.46676        0.12160        0.91826
C          1.02135        1.46054        0.32988
C         -0.13973        1.43034       -0.67193
C         -1.49033        0.93054       -0.13061
C         -1.72168       -0.58362       -0.19934
C         -3.09837       -0.99928        0.31676
H          0.97056       -1.36506       -0.91904
H          0.66514       -0.35627        1.50049
H          2.30461        0.28115        1.61418
H          0.74196        2.11655        1.17564
H          1.89286        1.93092       -0.15539
H         -0.26859        2.45990       -1.04466
H          0.15224        0.83347       -1.55407
H         -1.61873        1.27431        0.91296
H         -2.30180        1.41646       -0.70040
H         -1.60657       -0.91259       -1.24822
H         -0.94573       -1.12058        0.37035
H         -3.22888       -0.71544        1.37440
H         -3.90345       -0.50985       -0.25635
H         -3.24881       -2.08781        0.24267
