21
nuc31_conf-26.log	Energy: -398738.1910528
S          2.50336       -0.79244       -0.27498
C          1.37446       -0.05864        0.97631
C          0.67655        1.23254        0.54812
C         -0.13395        1.14745       -0.75104
C         -1.20457        0.05149       -0.78627
C         -2.27002        0.15327        0.30778
C         -3.35911       -0.91122        0.18242
H          3.33757        0.26984       -0.36877
H          0.64313       -0.85818        1.17120
H          1.93126        0.09518        1.91281
H          0.02480        1.54772        1.38259
H          1.43357        2.02975        0.44485
H         -0.61040        2.12832       -0.92536
H          0.56201        0.98414       -1.58950
H         -1.70230        0.08202       -1.77168
H         -0.72119       -0.94065       -0.73632
H         -1.79701        0.07135        1.30215
H         -2.72708        1.15929        0.27639
H         -2.93123       -1.92609        0.23999
H         -4.11229       -0.82086        0.98116
H         -3.88478       -0.83201       -0.78375
