21
nuc31_conf-105.log	Energy: -398736.1888722
S         -2.48716        0.14532       -0.60344
C         -1.15122        0.85038        0.44333
C         -0.35860       -0.16801        1.26301
C          0.28475       -1.30937        0.46639
C          1.22754       -0.92474       -0.68243
C          2.53140       -0.20439       -0.29905
C          2.42742        1.30892       -0.09095
H         -3.19722       -0.40932        0.40720
H         -0.50193        1.37187       -0.27545
H         -1.58120        1.62262        1.09874
H          0.40952        0.38493        1.83110
H         -1.02828       -0.60679        2.02387
H          0.83298       -1.95595        1.17428
H         -0.52448       -1.92825        0.04569
H          1.49377       -1.86149       -1.20060
H          0.68097       -0.32692       -1.43368
H          2.95340       -0.67680        0.60703
H          3.27169       -0.38534       -1.09738
H          1.79029        1.57664        0.76468
H          3.41981        1.75142        0.09176
H          2.00738        1.80151       -0.98397
