21
nuc31_conf-89.log	Energy: -398737.2348545
S          3.36343       -0.00902       -0.18680
C          1.63943        0.39859        0.31179
C          0.72372       -0.77655       -0.02631
C         -0.72966       -0.57865        0.42130
C         -1.46668        0.56006       -0.28990
C         -2.92824        0.73560        0.14102
C         -3.84197       -0.43828       -0.21468
H          3.91718        1.17142        0.17354
H          1.61033        0.60267        1.39403
H          1.32294        1.30932       -0.21700
H          0.75500       -0.95695       -1.11541
H          1.12787       -1.68641        0.44934
H         -1.26899       -1.52556        0.25410
H         -0.75685       -0.40417        1.51305
H         -0.93397        1.50978       -0.11305
H         -1.42588        0.38916       -1.38206
H         -2.96401        0.91369        1.23135
H         -3.32468        1.65353       -0.32622
H         -4.88676       -0.22924        0.06459
H         -3.82127       -0.64269       -1.29853
H         -3.54527       -1.36485        0.30178
