21
nuc31_conf-154.log	Energy: -398734.8115015
S         -2.65608        0.49058       -0.04229
C         -1.14673       -0.33002        0.59940
C         -0.34610       -1.09160       -0.45691
C          1.02549       -1.58216        0.04239
C          2.22135       -0.64329       -0.18085
C          2.17155        0.74767        0.47752
C          1.47107        1.83586       -0.34155
H         -3.24259       -0.62684       -0.53275
H         -0.56237        0.49509        1.02999
H         -1.41568       -0.99526        1.43496
H         -0.95188       -1.95632       -0.77839
H         -0.22437       -0.46259       -1.35381
H          0.95160       -1.82743        1.11817
H          1.26094       -2.53599       -0.45876
H          3.11710       -1.17164        0.18781
H          2.37990       -0.51591       -1.26770
H          1.71060        0.66545        1.47873
H          3.20742        1.07967        0.66238
H          0.41152        1.61549       -0.53707
H          1.51352        2.80860        0.17426
H          1.96181        1.95970       -1.32112
