21
nuc31_conf-20.log	Energy: -398738.2190021
S         -2.99725       -0.64504       -0.00907
C         -1.38508        0.06083       -0.53190
C         -0.67971        0.87809        0.54724
C          0.59505        1.58068        0.05822
C          1.69064        0.66418       -0.50206
C          2.19633       -0.40006        0.47480
C          3.35218       -1.22667       -0.08671
H         -2.50266       -1.44669        0.96306
H         -0.74819       -0.75294       -0.90912
H         -1.63391        0.69611       -1.39765
H         -1.38545        1.63048        0.93498
H         -0.44519        0.21871        1.40089
H          0.32021        2.32024       -0.71480
H          1.01164        2.16324        0.89891
H          1.33506        0.16864       -1.42341
H          2.54286        1.29170       -0.81791
H          2.51047        0.09070        1.41410
H          1.36875       -1.07593        0.75256
H          3.69559       -1.98739        0.63202
H          3.05457       -1.75072       -1.01037
H          4.21577       -0.58777       -0.33582
