21
nuc31_conf-133.log	Energy: -398735.6414700
S         -2.17991       -1.06062       -0.09278
C         -1.94254        0.64374        0.57704
C         -0.93959        1.46424       -0.23911
C          0.54590        1.13870       -0.03590
C          1.03046       -0.18787       -0.63033
C          2.55060       -0.38004       -0.56899
C          3.11689       -0.47729        0.84867
H         -3.25685       -1.36626        0.66733
H         -2.92186        1.14357        0.55690
H         -1.61546        0.58053        1.62743
H         -1.20027        1.39559       -1.31032
H         -1.09784        2.51939        0.04386
H          1.13597        1.95703       -0.48707
H          0.76815        1.17103        1.04534
H          0.53856       -1.03100       -0.11730
H          0.70398       -0.24332       -1.68405
H          2.81137       -1.29766       -1.12398
H          3.04535        0.44943       -1.10729
H          4.19979       -0.67901        0.83474
H          2.96497        0.45374        1.41774
H          2.63243       -1.29203        1.41294
