21
nuc31_conf-170.log	Energy: -398734.4680197
S          2.30621       -0.85738        0.32419
C          1.87153        0.91864        0.11612
C          0.38389        1.27084        0.13261
C         -0.43639        0.70193       -1.04187
C         -1.11328       -0.66158       -0.79554
C         -2.53552       -0.58244       -0.22454
C         -2.65993        0.07143        1.15242
H          1.87599       -1.27877       -0.88646
H          2.38436        1.40942        0.95777
H          2.35076        1.28587       -0.80523
H         -0.04944        0.95535        1.09374
H          0.32466        2.37387        0.11540
H         -1.21478        1.43061       -1.32785
H          0.22569        0.63231       -1.92341
H         -1.16536       -1.21158       -1.75075
H         -0.48207       -1.27059       -0.12804
H         -3.17820       -0.03977       -0.94214
H         -2.94462       -1.60661       -0.17167
H         -2.01982       -0.43305        1.89529
H         -2.37065        1.13412        1.13168
H         -3.69766        0.02402        1.51947
