21
nuc31_conf-45.log	Energy: -398737.8394386
S         -2.68048       -0.44373       -0.05218
C         -1.35311        0.60425       -0.77219
C         -0.33816        1.15281        0.23153
C          0.37689        0.10409        1.09076
C          1.11377       -0.98934        0.30633
C          2.16207       -0.49454       -0.69886
C          3.28675        0.33439       -0.07751
H         -3.18979        0.50100        0.77320
H         -0.86742       -0.05575       -1.50718
H         -1.81571        1.42450       -1.34136
H          0.40042        1.74607       -0.33720
H         -0.84822        1.87210        0.89621
H          1.08200        0.62664        1.75896
H         -0.36529       -0.38059        1.74516
H          1.60512       -1.66290        1.03086
H          0.37474       -1.61591       -0.22185
H          2.59716       -1.37160       -1.20840
H          1.67177        0.09363       -1.49496
H          3.79323       -0.22383        0.72794
H          4.04829        0.60272       -0.82683
H          2.91214        1.27361        0.36003
