19
nuc01_conf-0.log	Energy: -538767.0285443
S         -3.89488       -0.28154       -0.00000
C         -2.13789       -0.05083       -0.00000
C         -1.53230        1.21768        0.00000
C         -0.14585        1.32835        0.00000
C          0.66409        0.18333       -0.00000
C          2.13944        0.36651       -0.00000
O          2.80461       -0.80655        0.00000
C          4.22656       -0.71762        0.00000
O          2.69949        1.43948       -0.00000
C          0.05793       -1.08260       -0.00000
C         -1.32832       -1.20076       -0.00000
H         -4.22772        1.02822        0.00001
H         -2.14823        2.11974        0.00000
H          0.33676        2.30728        0.00000
H          4.58525       -0.18141        0.89174
H          4.58525       -0.18141       -0.89174
H          4.59859       -1.74946        0.00001
H          0.68379       -1.97527       -0.00000
H         -1.79023       -2.19078       -0.00000
