33
elec13_conf-163.log	Energy: -2267109.1538977
N          1.48609       -4.18255       -0.28953
C          1.83935       -2.86267       -0.13131
N          0.79245       -1.96160       -0.30538
C          1.14122       -0.64009       -0.23135
C          2.43061       -0.20897        0.01682
N          2.45755        1.17419        0.02810
C          1.24134        1.54705       -0.20725
Br         0.62702        3.32294       -0.32078
N          0.35664        0.47686       -0.39337
C         -1.09481        0.54719       -0.42948
O         -1.61493       -0.67835       -0.91475
C         -2.60924       -1.20934       -0.01081
C         -3.73272       -1.80130       -0.84414
O         -4.26907       -0.85328       -1.73181
C         -3.02609       -0.01234        0.85994
O         -3.58425       -0.36355        2.08608
C         -1.70786        0.76184        0.97193
O         -0.96583        0.10846        1.97866
N          3.06032       -2.53212        0.12642
C          3.51108       -1.19551        0.19974
O          4.67327       -0.92214        0.40602
H          0.56120       -4.46683        0.01472
H          2.23251       -4.82218       -0.03823
H         -0.08529       -2.21470       -0.74535
H         -1.37194        1.37025       -1.10755
H         -2.15011       -1.98134        0.63478
H         -3.36948       -2.70575       -1.37224
H         -4.53527       -2.11607       -0.15869
H         -3.53936       -0.55901       -2.29586
H         -3.76300        0.57902        0.29391
H         -2.83823       -0.55534        2.67757
H         -1.84369        1.83243        1.19183
H         -0.18509        0.62875        2.21075
