33
elec13_conf-109.log	Energy: -2267109.6528556
N          1.43331       -4.15580        0.18707
C          1.81850       -2.84440        0.01572
N          0.78666       -1.92398        0.16522
C          1.16814       -0.61389        0.08737
C          2.46366       -0.21050       -0.15523
N          2.51424        1.17327       -0.20845
C          1.30278        1.57359       -0.02299
Br         0.74661        3.37136        0.04511
N          0.38915        0.52200        0.18541
C         -1.04469        0.61313        0.21675
O         -1.60081       -0.11538       -0.86928
C         -2.85440       -0.69977       -0.49846
C         -3.87723       -0.37187       -1.57200
O         -3.48741       -0.86786       -2.82270
C         -3.17118       -0.15326        0.89951
O         -3.88165       -1.11658        1.64936
C         -1.75984        0.09270        1.46704
O         -1.23985       -1.14431        1.90053
N          3.05062       -2.54590       -0.23134
C          3.52866       -1.21898       -0.30475
O          4.70114       -0.96947       -0.48542
H          0.51434       -4.41735       -0.15474
H          2.17177       -4.81115       -0.04740
H         -0.05467       -2.13616        0.70067
H         -1.27418        1.68724        0.11844
H         -2.73399       -1.79592       -0.43558
H         -4.83842       -0.84115       -1.30598
H         -4.03245        0.72847       -1.58570
H         -2.60309       -0.51531       -3.00128
H         -3.72884        0.79714        0.82446
H         -4.41259       -0.67278        2.32349
H         -1.72926        0.84151        2.27885
H         -2.00539       -1.64114        2.24282
