33
elec13_conf-129.log	Energy: -2267109.4642137
N          2.82259       -3.35833       -0.33684
C          2.69160       -1.98684       -0.27469
N          1.38130       -1.54782       -0.10403
C          1.22036       -0.18877       -0.08891
C          2.26722        0.69875       -0.21878
N          1.78246        1.99374       -0.13815
C          0.50796        1.88036        0.02806
Br        -0.70234        3.31039        0.19463
N          0.06769        0.54509        0.07877
C         -1.27564        0.06426        0.20186
O         -1.63027       -0.66892       -0.96556
C         -2.52920       -1.72237       -0.60394
C         -3.96574       -1.19935       -0.61667
O         -4.26065       -0.60844       -1.85014
C         -2.03206       -2.20291        0.75690
O         -0.90204       -3.06406        0.62649
C         -1.54472       -0.89478        1.42722
O         -0.49741       -1.04526        2.32380
N          3.71803       -1.21696       -0.40078
C          3.63653        0.19534       -0.42434
O          4.61710        0.88784       -0.58765
H          2.20896       -3.90859        0.25528
H          3.79312       -3.65487       -0.32463
H          0.58766       -2.18421       -0.18786
H         -1.90395        0.96162        0.29485
H         -2.42563       -2.49903       -1.37796
H         -4.66460       -2.03798       -0.46173
H         -4.11792       -0.49585        0.23077
H         -3.50597       -0.04251       -2.07527
H         -2.81603       -2.69677        1.35349
H         -1.19925       -3.93483        0.33211
H         -2.38286       -0.46383        1.99414
H          0.13224       -1.68832        1.96621
