33
elec13_conf-92.log	Energy: -2267105.7086134
N          2.37419        3.40697        0.29022
C          1.10654        2.90826        0.09804
N          0.99177        1.54496        0.31855
C         -0.25401        1.01318        0.13262
C         -1.32561        1.77974       -0.28062
N         -2.45174        0.98346       -0.39882
C         -2.07178       -0.20567       -0.08101
Br        -3.19372       -1.71817       -0.04117
N         -0.70941       -0.29214        0.27878
C          0.00354       -1.54164        0.49379
O          0.61801       -2.04919       -0.66707
C          1.89916       -1.45474       -0.76638
C          2.80308       -2.22830       -1.70064
O          4.06149       -1.57997       -1.59190
C          2.43866       -1.38732        0.67702
O          3.18623       -0.21341        0.91124
C          1.14991       -1.44889        1.54794
O          1.07997       -0.36522        2.42602
N          0.14925        3.68423       -0.29543
C         -1.15652        3.22135       -0.54373
O         -2.04022        3.95840       -0.92884
H          2.97377        2.94499        0.96508
H          2.40803        4.42018        0.29583
H          1.77836        1.01119        0.69924
H         -0.76294       -2.26790        0.78530
H          1.81717       -0.42033       -1.14661
H          2.84831       -3.28569       -1.37493
H          2.40437       -2.20198       -2.73055
H          4.69785       -2.00106       -2.18167
H          3.05763       -2.27579        0.88701
H          3.89483       -0.22602        0.24596
H          1.15034       -2.40747        2.09559
H          0.23216       -0.38719        2.88969
