33
elec13_conf-48.log	Energy: -2267106.6690229
N          2.51564        3.29075        0.30263
C          1.22025        2.84785        0.12315
N          1.04537        1.49214        0.34893
C         -0.22317        1.01117        0.16278
C         -1.26040        1.82485       -0.24787
N         -2.41675        1.07590       -0.37539
C         -2.08420       -0.13049       -0.06680
Br        -3.26520       -1.59647       -0.04948
N         -0.72772       -0.27405        0.29108
C         -0.06596       -1.55341        0.48070
O          0.53378       -2.04386       -0.70164
C          1.83350       -1.48821       -0.78669
C          2.72181       -2.23738       -1.76101
O          4.02576       -1.66889       -1.68168
C          2.37082       -1.53046        0.65438
O          3.17634       -0.41579        0.99198
C          1.08020       -1.55115        1.52846
O          0.96557       -0.48212        2.41957
N          0.29870        3.66258       -0.27021
C         -1.02964        3.25578       -0.51477
O         -1.87668        4.03225       -0.90302
H          3.06843        2.83932        1.02397
H          2.58015        4.30339        0.29666
H          1.80591        0.92145        0.71780
H         -0.85973       -2.25791        0.74733
H          1.78139       -0.43154       -1.10952
H          2.79307       -3.29566       -1.46188
H          2.30936       -2.20569       -2.78306
H          4.10165       -0.97919       -2.35322
H          2.93855       -2.46305        0.81140
H          3.93875       -0.45190        0.39070
H          1.02857       -2.51842        2.05865
H          1.81182       -0.37974        2.87792
