33
elec13_conf-12.log	Energy: -2267108.5867044
N          1.24337       -4.14927       -0.14518
C          1.67620       -2.84690       -0.20731
N          0.65799       -1.90264       -0.17731
C          1.07485       -0.60465       -0.14504
C          2.40347       -0.23025       -0.17419
N          2.49433        1.15192       -0.14487
C          1.27858        1.58273       -0.11401
Br         0.75334        3.38880       -0.01580
N          0.32084        0.55089       -0.10418
C         -1.11622        0.67019       -0.13118
O         -1.64425       -0.14508       -1.15362
C         -2.83959       -0.78322       -0.70850
C         -4.05972        0.06713       -1.05356
O         -5.19998       -0.63710       -0.62432
C         -2.65150       -0.99915        0.78872
O         -1.90322       -2.18579        0.99244
C         -1.81662        0.23279        1.20456
O         -0.94718       -0.14835        2.23756
N          2.94036       -2.57580       -0.25067
C          3.45483       -1.26397       -0.21651
O          4.64662       -1.03891       -0.22659
H          0.33416       -4.37518       -0.53241
H          1.97716       -4.82717       -0.31769
H         -0.30894       -2.14991        0.06254
H         -1.32309        1.73212       -0.33159
H         -2.92057       -1.75238       -1.22218
H         -3.97408        1.05985       -0.56333
H         -4.04780        0.24354       -2.14538
H         -5.99086       -0.15040       -0.88575
H         -3.61857       -1.05558        1.31184
H         -1.45240       -2.07649        1.84858
H         -2.48354        1.04936        1.53199
H         -0.19830        0.46209        2.29021
