33
elec13_conf-133.log	Energy: -2267105.5711951
N          3.89693        2.89189       -0.08094
C          3.44367        1.59323       -0.06905
N          2.06026        1.47073       -0.16108
C          1.57615        0.19318       -0.06393
C          2.39798       -0.90782        0.07466
N          1.63564       -2.06230        0.07671
C          0.41598       -1.67220       -0.06360
Br        -1.08066       -2.81497       -0.14718
N          0.27603       -0.27513       -0.16616
C         -0.99156        0.38603       -0.29462
O         -1.68749        0.36418        0.95251
C         -2.86183        1.19427        0.78590
C         -4.09192        0.31134        0.62767
O         -3.96330       -0.56909       -0.46637
C         -2.56723        2.10230       -0.44915
O         -2.90366        3.44531       -0.28176
C         -1.05693        1.86585       -0.65279
O         -0.34866        2.67646        0.28787
N          4.26987        0.60918        0.05767
C          3.85931       -0.73477        0.17619
O          4.65202       -1.63790        0.33217
H          3.39001        3.56869       -0.64105
H          4.90755        2.95659       -0.14112
H          1.42945        2.26115       -0.01420
H         -1.56804       -0.17174       -1.05077
H         -2.96614        1.82098        1.68725
H         -4.27383       -0.23301        1.57255
H         -4.96652        0.95585        0.43979
H         -3.35040       -1.27410       -0.20940
H         -3.12271        1.72216       -1.32006
H         -2.17763        3.85793        0.21231
H         -0.68962        2.12051       -1.65539
H         -0.49313        2.27834        1.16487
