33
elec13_conf-147.log	Energy: -2267107.9602429
N         -1.79880        4.10388        0.00084
C         -2.09977        2.76369       -0.11292
N         -1.00704        1.91886        0.03648
C         -1.30253        0.58512        0.01792
C         -2.57520        0.08981       -0.17069
N         -2.53661       -1.29533       -0.16755
C         -1.29734       -1.60901       -0.00024
Br        -0.62497       -3.36367        0.12170
N         -0.44899       -0.49320        0.14102
C          0.98680       -0.49342        0.14703
O          1.47158        0.20176       -0.99326
C          2.76287        0.73426       -0.72223
C          3.78827        0.18646       -1.71285
O          5.10318        0.50984       -1.31982
C          3.09686        0.37578        0.73839
O          3.75815        1.45338        1.37443
C          1.69897        0.14288        1.34337
O          1.15301        1.39809        1.68448
N         -3.31648        2.37750       -0.31147
C         -3.70753        1.02046       -0.32637
O         -4.86552        0.68918       -0.46613
H         -0.90893        4.41219       -0.37679
H         -2.58554        4.69866       -0.23800
H         -0.15395        2.20477        0.51750
H          1.28236       -1.55609        0.11137
H          2.71725        1.83753       -0.79471
H          3.71625       -0.91314       -1.72031
H          3.54628        0.53457       -2.73468
H          5.18968        1.47252       -1.29743
H          3.70353       -0.54277        0.77771
H          4.44078        1.10839        1.96335
H          1.69815       -0.53900        2.21247
H          1.91195        1.93473        1.97862
