32
elec66_conf-21.log	Energy: -2219879.1563180
N          0.89290        3.73048       -0.21624
C         -0.33286        3.21537       -0.13478
C          1.95262        2.90308       -0.17683
C          1.71955        1.51287       -0.04775
C          0.38200        1.10336        0.03328
N         -0.67451        1.92593       -0.00805
H         -1.16661        3.92487       -0.17478
N          3.19437        3.41526       -0.26147
N          0.42766       -0.27505        0.15533
C          1.78281       -0.59385        0.13647
N          2.57403        0.43178        0.01525
Br         2.37193       -2.37027        0.25359
H          3.99746        2.80247       -0.23154
H          3.30886        4.41589       -0.35315
C         -0.69534       -1.20320        0.29987
O         -1.65973       -0.63020        1.13478
C         -2.96857       -0.73439        0.53656
C         -2.70198       -0.75048       -0.97889
C         -1.39931       -1.58255       -1.02350
O         -1.64160       -2.97180       -0.93398
O         -2.56626        0.48906       -1.60381
C         -3.84855        0.35744        1.12647
O         -3.37375        1.65895        0.92822
H         -2.13314       -3.24557       -1.71908
H         -2.13553        1.12313       -0.99789
H         -2.40021        1.65045        0.97395
H         -0.79418       -1.31034       -1.90537
H         -3.50488       -1.29898       -1.50123
H         -0.28032       -2.12435        0.73626
H         -3.40084       -1.71590        0.80693
H         -3.97313        0.12775        2.20540
H         -4.84759        0.27735        0.66416
