16
elec75_conf-1.log	Energy: -571748.6980662
C         -1.56952        1.34521        0.00021
C         -1.75912       -0.04996        0.00086
C         -0.26294        1.84737        0.00123
C          0.75491        0.90384       -0.00199
C          0.44828       -0.48929       -0.00327
N         -0.80031       -0.95404       -0.00005
Cl        -3.41561       -0.64423        0.00241
N          2.14123        0.95564        0.00517
C          2.58109       -0.35705       -0.00171
N          1.60699       -1.23577        0.00456
N          3.91395       -0.66195       -0.06724
H          2.71597        1.78216       -0.09405
H          4.10487       -1.64860        0.07245
H          4.56106       -0.04361        0.40939
H         -2.43181        2.01079       -0.00058
H         -0.07391        2.92319        0.00271
