10
elec49_conf-0.log	Energy: -1780892.7666024
Br         1.78084        0.00000       -0.00004
C         -0.11299       -0.00000        0.00000
C         -0.83943        1.19495        0.00006
N         -2.17201        1.19085        0.00009
C         -2.77399       -0.00000        0.00007
N         -2.17201       -1.19085        0.00001
C         -0.83943       -1.19495       -0.00002
H         -0.32813        2.16367        0.00008
H         -3.87001        0.00000        0.00009
H         -0.32813       -2.16367       -0.00006
