13
elec50_conf-0.log	Energy: -252938.4036227
N         -2.72151       -0.07305       -0.05732
C         -1.34593       -0.01410       -0.00743
N         -0.69369       -1.18318        0.00015
C          0.63971       -1.18248       -0.00070
C          1.38566       -0.00892        0.00083
F          2.72807       -0.06119        0.00653
C          0.72759        1.22059        0.00063
C         -0.66112        1.22450       -0.00622
H         -3.24778        0.72519        0.27285
H         -3.11735       -0.98136        0.15546
H          1.15393       -2.15023        0.00315
H          1.30468        2.14760        0.00347
H         -1.21520        2.16557       -0.01615
