15
elec57_conf-0.log	Energy: -1908327.0112979
N         -0.43071        2.42307        0.00006
C         -1.17151        1.29641        0.00009
C         -0.59637       -0.00359        0.00003
C         -1.51573       -1.07803        0.00007
N         -0.76160       -2.21269        0.00001
N          0.56996       -1.95489       -0.00006
C          0.67784       -0.64618       -0.00005
Br         2.36486        0.19948       -0.00014
N         -2.84842       -0.97173        0.00015
C         -3.25447        0.29554        0.00020
N         -2.50676        1.40922        0.00017
H         -0.91243        3.31282        0.00011
H          0.57956        2.38282        0.00001
H         -1.09403       -3.16947        0.00001
H         -4.33916        0.45642        0.00026
