17
elec41_conf-2.log	Energy: -587357.1174067
Cl         1.07621        2.22177       -0.06915
C          1.16624        0.49203       -0.01258
C          0.03437       -0.34582        0.02935
C         -1.36973        0.16830        0.06800
O         -2.25747       -0.82464       -0.14290
C         -3.63304       -0.45091       -0.09413
O         -1.70049        1.31005        0.26855
C          0.27576       -1.73536        0.05198
N          1.48073       -2.29668        0.04276
C          2.53764       -1.48066        0.00308
C          2.43675       -0.09097       -0.02735
H         -3.85792        0.30613       -0.86022
H         -3.88950       -0.03331        0.89117
H         -4.20448       -1.36767       -0.28229
H         -0.58453       -2.40821        0.08391
H          3.52641       -1.95330       -0.00734
H          3.32518        0.54002       -0.06431
